
  ___ ___ ___ _ _ _  
 |   |   |_  | | | | 
 | | | | | . | | | | 
 |__ |  _|___|_____|  22.8.0
 |___|_|             

User:   ajayaraj@nid05638
Date:   Tue Nov  5 11:55:53 2024
Arch:   x86_64
Pid:    5725
CWD:    /scratch/snx3000/ajayaraj/tests/los-dmrg/tests/triangulene
Python: 3.9.4
gpaw:   /users/ajayaraj/.local/lib/python3.9/site-packages/gpaw-22.8.0-py3.9-linux-x86_64.egg/gpaw
_gpaw:  /users/ajayaraj/.local/lib/python3.9/site-packages/
        _gpaw.cpython-39-x86_64-linux-gnu.so
ase:    /users/ajayaraj/.local/lib/python3.9/site-packages/ase (version 3.22.1)
numpy:  /apps/daint/UES/jenkins/7.0.UP03/21.09/daint-mc/software/numpy/1.21.4-CrayGNU-21.09/lib/python3.9/site-packages/numpy (version 1.21.4)
scipy:  /opt/python/3.9.4.1/lib/python3.9/site-packages/scipy (version 1.6.2)
libxc:  5.1.7
units:  Angstrom and eV
cores: 1
OpenMP: False
OMP_NUM_THREADS: 1

Input parameters:
  basis: {C: dzp,
          H: dzp}
  h: 0.2
  kpts: [1 1 1]
  mixer: {backend: pulay,
          beta: 0.1,
          method: separate,
          nmaxold: 5,
          weight: 100.0}
  mode: lcao
  occupations: {fixmagmom: False,
                name: fermi-dirac,
                width: 0.2}
  symmetry: {point_group: False,
             time_reversal: True}
  xc: PBE

System changes: positions, numbers, cell, pbc, initial_charges, initial_magmoms 

Initialize ...

species:
  C:
    name: Carbon
    id: 4aa54d4b901d75f77cc0ea3eec22967b
    Z: 6.0
    valence: 4
    core: 2
    charge: 0.0
    file: /users/ajayaraj/software/gpaw/gpaw-setups-0.9.20000/C.PBE.gz
    compensation charges: {type: gauss,
                           rc: 0.20,
                           lmax: 2}
    cutoffs: {filter: 1.14,
              core: 1.14}
    valence states:
      #              energy  rcut
      - 2s(2.00)   -13.751   0.635
      - 2p(2.00)    -5.284   0.635
      -  s          13.461   0.635
      -  p          21.927   0.635
      -  d           0.000   0.635
  
    # LCAO basis set for C:
    #   Name: dzp
    #   File: /users/ajayaraj/software/gpaw/gpaw-setups-0.9.20000/C.dzp.basis.gz
    #   Number of radial functions: 5
    #   Number of spherical harmonics: 13
    #     l=0, rc=5.5469 Bohr: 2s-sz confined orbital
    #     l=1, rc=6.6719 Bohr: 2p-sz confined orbital
    #     l=0, rc=3.0312 Bohr: 2s-dz split-valence wave
    #     l=1, rc=3.7500 Bohr: 2p-dz split-valence wave
    #     l=2, rc=6.6719 Bohr: d-type Gaussian polarization
    #   Number of RI-basis functions 0

  H:
    name: Hydrogen
    id: d65de229564ff8ea4db303e23b6d1ecf
    Z: 1.0
    valence: 1
    core: 0
    charge: 0.0
    file: /users/ajayaraj/software/gpaw/gpaw-setups-0.9.20000/H.PBE.gz
    compensation charges: {type: gauss,
                           rc: 0.15,
                           lmax: 2}
    cutoffs: {filter: 0.85,
              core: 0.53}
    valence states:
      #              energy  rcut
      - 1s(1.00)    -6.494   0.476
      -  s          20.717   0.476
      -  p           0.000   0.476
  
    # LCAO basis set for H:
    #   Name: dzp
    #   File: /users/ajayaraj/software/gpaw/gpaw-setups-0.9.20000/H.dzp.basis.gz
    #   Number of radial functions: 3
    #   Number of spherical harmonics: 5
    #     l=0, rc=6.4219 Bohr: 1s-sz confined orbital
    #     l=0, rc=3.6094 Bohr: 1s-dz split-valence wave
    #     l=1, rc=6.4219 Bohr: p-type Gaussian polarization
    #   Number of RI-basis functions 0

Reference energy: -13471.576961  # eV

Spin-paired calculation

Convergence criteria:
 Maximum [total energy] change in last 3 cyles: 0.0005 eV / electron
 Maximum integral of absolute [dens]ity change: 0.0001 electrons / valence electron
 Maximum integral of absolute [eigenst]ate change: 4e-08 eV^2 / valence electron
 Maximum number of scf [iter]ations: 333
 (Square brackets indicate name in SCF output, whereas a 'c' in
 the SCF output indicates the quantity has converged.)

Symmetries present (total): 1

  ( 1  0  0)
  ( 0  1  0)
  ( 0  0  1)

1 k-point (Gamma)
1 k-point in the irreducible part of the Brillouin zone
       k-points in crystal coordinates                weights
   0:     0.00000000    0.00000000    0.00000000          1/1

Wave functions: LCAO
  Diagonalizer: Serial LAPACK
  Atomic Correction: dense with blas
  Data-type: float
 

Occupation numbers: Fermi-Dirac:
  width: 0.2000  # eV
 

Eigensolver
   LCAO using direct dense diagonalizer 

Densities:
  Coarse grid: 108*112*76 grid
  Fine grid: 216*224*152 grid
  Total Charge: 0.000000 

Density mixing:
  Method: separate
  Backend: pulay
  Linear mixing parameter: 0.1
  old densities: 5
  Damping of long wavelength oscillations: 100 

Hamiltonian:
  XC and Coulomb potentials evaluated on a 216*224*152 grid
  Using the PBE Exchange-Correlation functional
  Interpolation: tri-quintic (5. degree polynomial)
  Poisson solver: FastPoissonSolver using
    Stencil: 6*3+1=19 point O(h^6) finite-difference Laplacian
    FFT axes: []
    FST axes: [2, 0, 1]
 

XC parameters: PBE with 2 nearest neighbor stencil

Memory estimate:
  Process memory now: 747.88 MiB
  Calculator: 403.38 MiB
    Density: 257.33 MiB
      Arrays: 179.30 MiB
      Localized functions: 10.07 MiB
      Mixer: 67.96 MiB
    Hamiltonian: 118.06 MiB
      Arrays: 117.27 MiB
      XC: 0.00 MiB
      Poisson: 0.00 MiB
      vbar: 0.80 MiB
    Wavefunctions: 27.99 MiB
      C [qnM]: 0.07 MiB
      S, T [2 x qmm]: 0.70 MiB
      P [aqMi]: 0.04 MiB
      BasisFunctions: 27.18 MiB
      Eigensolver: 0.00 MiB

Total number of cores used: 1

Number of atoms: 22
Number of atomic orbitals: 214
Number of bands in calculation: 41
Number of valence electrons: 61
Bands to converge: occupied

... initialized

Initializing position-dependent things.

Density initialized from atomic densities
               .-----------------------------------------------------.  
              /|                                                     |  
             / |                                                     |  
            /  |                                                     |  
           /   |                                                     |  
          /    |                                                     |  
         /     |                                                     |  
        /      |                                                     |  
       /       |                                                     |  
      /        |                                                     |  
     /         |                                                     |  
    /          |                                                     |  
   /           |                                                     |  
  /            |                                                     |  
 *             |                     C                               |  
 |             |               H C     C  H                          |  
 |             |           H C  C  C  C  C  H                        |  
 |             |         H  C     C     C H                          |  
 |             .--------------H-----H--------------------------------.  
 |            /                                                     /   
 |           /                                                     /    
 |          /                                                     /     
 |         /                                                     /      
 |        /                                                     /       
 |       /                                                     /        
 |      /                                                     /         
 |     /                                                     /          
 |    /                                                     /           
 |   /                                                     /            
 |  /                                                     /             
 | /                                                     /              
 |/                                                     /               
 *-----------------------------------------------------*                

Positions:
   0 C     12.172804    8.600000    7.500000    ( 0.0000,  0.0000,  0.0000)
   1 C     10.932918    9.315826    7.500000    ( 0.0000,  0.0000,  0.0000)
   2 C     10.933357   10.748307    7.500000    ( 0.0000,  0.0000,  0.0000)
   3 C     12.173020   11.463815    7.500000    ( 0.0000,  0.0000,  0.0000)
   4 C     13.412906   10.747989    7.500000    ( 0.0000,  0.0000,  0.0000)
   5 C     13.413130    9.316655    7.500000    ( 0.0000,  0.0000,  0.0000)
   6 C      9.693470   11.464133    7.500000    ( 0.0000,  0.0000,  0.0000)
   7 C      9.693246   12.895466    7.500000    ( 0.0000,  0.0000,  0.0000)
   8 C     10.932909   13.610974    7.500000    ( 0.0000,  0.0000,  0.0000)
   9 C     12.172796   12.895148    7.500000    ( 0.0000,  0.0000,  0.0000)
  10 C      9.693255    8.600318    7.500000    ( 0.0000,  0.0000,  0.0000)
  11 C      8.453368    9.316144    7.500000    ( 0.0000,  0.0000,  0.0000)
  12 C      8.453144   10.747477    7.500000    ( 0.0000,  0.0000,  0.0000)
  13 H     12.172467    7.500000    7.500000    ( 0.0000,  0.0000,  0.0000)
  14 H     14.365605   11.297866    7.500000    ( 0.0000,  0.0000,  0.0000)
  15 H     14.366275    8.767551    7.500000    ( 0.0000,  0.0000,  0.0000)
  16 H      8.740611   13.445453    7.500000    ( 0.0000,  0.0000,  0.0000)
  17 H     13.125495   13.445026    7.500000    ( 0.0000,  0.0000,  0.0000)
  18 H      9.693427    7.500318    7.500000    ( 0.0000,  0.0000,  0.0000)
  19 H      7.500670    8.766266    7.500000    ( 0.0000,  0.0000,  0.0000)
  20 H      7.500000   11.296582    7.500000    ( 0.0000,  0.0000,  0.0000)
  21 H     10.932909   14.710974    7.500000    ( 0.0000,  0.0000,  0.0000)

Unit cell:
           periodic     x           y           z      points  spacing
  1. axis:    no    21.866275    0.000000    0.000000   108     0.2025
  2. axis:    no     0.000000   22.210974    0.000000   112     0.1983
  3. axis:    no     0.000000    0.000000   15.000000    76     0.1974

  Lengths:  21.866275  22.210974  15.000000
  Angles:   90.000000  90.000000  90.000000

Effective grid spacing dv^(1/3) = 0.1994

     iter     time        total  log10-change:
                         energy  eigst   dens
iter:   1 11:56:09  -148.936622       c
iter:   2 11:56:14  -147.710080       c -0.83
iter:   3 11:56:19  -145.282959       c -0.89
iter:   4 11:56:24  -145.036178       c -1.38
iter:   5 11:56:30  -145.023749       c -1.80
iter:   6 11:56:35  -145.009888c      c -2.12
iter:   7 11:56:40  -145.008976c      c -2.62
iter:   8 11:56:45  -145.008230c      c -2.76
iter:   9 11:56:50  -145.008214c      c -3.32
iter:  10 11:56:55  -145.008207c      c -3.47
iter:  11 11:57:00  -145.008188c      c -3.62
iter:  12 11:57:05  -145.008188c      c -4.00c

Converged after 12 iterations.

Dipole moment: (-0.000096, -0.000280, 0.000000) |e|*Ang

Energy contributions relative to reference atoms: (reference = -13471.576961)

Kinetic:        +89.173729
Potential:     -106.029679
External:        +0.000000
XC:            -129.421535
Entropy (-ST):   -0.277409
Local:           +1.408002
--------------------------
Free energy:   -145.146893
Extrapolated:  -145.008188

 Band  Eigenvalues  Occupancy
    0    -21.82715    2.00000
    1    -20.23292    2.00000
    2    -20.23010    2.00000
    3    -18.35228    2.00000
    4    -18.35021    2.00000
    5    -18.16866    2.00000
    6    -16.23826    2.00000
    7    -15.28538    2.00000
    8    -14.91083    2.00000
    9    -14.90784    2.00000
   10    -12.60559    2.00000
   11    -12.60446    2.00000
   12    -12.18616    2.00000
   13    -12.18383    2.00000
   14    -11.36552    2.00000
   15    -10.25232    2.00000
   16    -10.24868    2.00000
   17    -10.10157    2.00000
   18     -9.89906    2.00000
   19     -9.73996    2.00000
   20     -9.27672    2.00000
   21     -9.27488    2.00000
   22     -8.79432    2.00000
   23     -8.03883    2.00000
   24     -8.03681    2.00000
   25     -7.84324    2.00000
   26     -7.84102    2.00000
   27     -6.14924    1.99999
   28     -6.14778    1.99999
   29     -6.06079    1.99999
   30     -3.65765    1.00000
   31     -1.33494    0.00002
   32     -1.10449    0.00001
   33     -1.10335    0.00001
   34      1.38746    0.00000
   35      1.39026    0.00000
   36      1.60544    0.00000
   37      2.18271    0.00000
   38      2.18437    0.00000
   39      2.82582    0.00000
   40      2.82796    0.00000

Fermi level: -3.65765

Gap: 2.403 eV
Transition (v -> c):
  (s=0, k=0, n=29, [0.00, 0.00, 0.00]) -> (s=0, k=0, n=30, [0.00, 0.00, 0.00])
Writing to struct.gpw (mode='all')

Timing:                              incl.     excl.
-----------------------------------------------------------
Basic WFS set positions:             0.001     0.001   0.0% |
Basis functions set positions:       0.060     0.060   0.1% |
LCAO WFS Initialize:                 4.471     0.200   0.3% |
 Hamiltonian:                        4.270     0.000   0.0% |
  Atomic:                            0.482     0.002   0.0% |
   XC Correction:                    0.480     0.480   0.7% |
  Calculate atomic Hamiltonians:     0.003     0.003   0.0% |
  Communicate:                       0.000     0.000   0.0% |
  Hartree integrate/restrict:        0.112     0.112   0.2% |
  Initialize Hamiltonian:            0.000     0.000   0.0% |
  Poisson:                           1.296     0.092   0.1% |
   Communicate from 1D:              0.130     0.130   0.2% |
   Communicate from 2D:              0.132     0.132   0.2% |
   Communicate to 1D:                0.125     0.125   0.2% |
   Communicate to 2D:                0.125     0.125   0.2% |
   FFT 1D:                           0.249     0.249   0.3% |
   FFT 2D:                           0.443     0.443   0.6% |
  XC 3D grid:                        2.334     2.334   3.2% ||
  vbar:                              0.043     0.043   0.1% |
P tci:                               0.101     0.101   0.1% |
SCF-cycle:                          56.510     1.369   1.9% ||
 Density:                            5.207     0.000   0.0% |
  Atomic density matrices:           0.020     0.020   0.0% |
  Mix:                               2.399     2.399   3.3% ||
  Multipole moments:                 0.004     0.004   0.0% |
  Normalize:                         0.019     0.019   0.0% |
  Pseudo density:                    2.764     0.023   0.0% |
   Calculate density matrix:         0.013     0.013   0.0% |
   Construct density:                2.727     2.727   3.7% ||
   Symmetrize density:               0.000     0.000   0.0% |
 Hamiltonian:                       46.375     0.001   0.0% |
  Atomic:                            5.325     0.019   0.0% |
   XC Correction:                    5.306     5.306   7.3% |--|
  Calculate atomic Hamiltonians:     0.033     0.033   0.0% |
  Communicate:                       0.000     0.000   0.0% |
  Hartree integrate/restrict:        1.059     1.059   1.5% ||
  Poisson:                          13.926     0.728   1.0% |
   Communicate from 1D:              1.449     1.449   2.0% ||
   Communicate from 2D:              1.433     1.433   2.0% ||
   Communicate to 1D:                1.394     1.394   1.9% ||
   Communicate to 2D:                1.381     1.381   1.9% ||
   FFT 1D:                           2.682     2.682   3.7% ||
   FFT 2D:                           4.858     4.858   6.7% |--|
  XC 3D grid:                       25.803    25.803  35.4% |-------------|
  vbar:                              0.229     0.229   0.3% |
 LCAO eigensolver:                   3.559     0.002   0.0% |
  Calculate projections:             0.017     0.017   0.0% |
  DenseAtomicCorrection:             0.035     0.035   0.0% |
  Distribute overlap matrix:         0.000     0.000   0.0% |
  Orbital Layouts:                   0.078     0.078   0.1% |
  Potential matrix:                  3.427     3.427   4.7% |-|
ST tci:                              0.034     0.034   0.0% |
Set symmetry:                        0.001     0.001   0.0% |
TCI: Evaluate splines:               0.169     0.169   0.2% |
mktci:                               0.005     0.005   0.0% |
Other:                              11.468    11.468  15.7% |-----|
-----------------------------------------------------------
Total:                                        72.819 100.0%

Memory usage: 1.07 GiB
Date: Tue Nov  5 11:57:05 2024

