
  ___ ___ ___ _ _ _  
 |   |   |_  | | | | 
 | | | | | . | | | | 
 |__ |  _|___|_____|  22.8.0
 |___|_|             

User:   ajayaraj@nid07214
Date:   Sun Oct  6 13:19:46 2024
Arch:   x86_64
Pid:    22662
CWD:    /scratch/snx3000/ajayaraj/tests/los-dmrg/tests/phenalenyl_dimer/rotate_30deg/dft_gpaw
Python: 3.9.4
gpaw:   /users/ajayaraj/.local/lib/python3.9/site-packages/gpaw-22.8.0-py3.9-linux-x86_64.egg/gpaw
_gpaw:  /users/ajayaraj/.local/lib/python3.9/site-packages/
        _gpaw.cpython-39-x86_64-linux-gnu.so
ase:    /users/ajayaraj/.local/lib/python3.9/site-packages/ase (version 3.22.1)
numpy:  /apps/daint/UES/jenkins/7.0.UP03/21.09/daint-mc/software/numpy/1.21.4-CrayGNU-21.09/lib/python3.9/site-packages/numpy (version 1.21.4)
scipy:  /opt/python/3.9.4.1/lib/python3.9/site-packages/scipy (version 1.6.2)
libxc:  5.1.7
units:  Angstrom and eV
cores: 1
OpenMP: False
OMP_NUM_THREADS: 1

Input parameters:
  basis: {C: dzp,
          H: dzp}
  h: 0.2
  kpts: [1 1 1]
  mixer: {backend: pulay,
          beta: 0.1,
          method: separate,
          nmaxold: 5,
          weight: 100.0}
  mode: lcao
  occupations: {fixmagmom: False,
                name: fermi-dirac,
                width: 0.2}
  symmetry: {point_group: False,
             time_reversal: True}
  xc: PBE

System changes: positions, numbers, cell, pbc, initial_charges, initial_magmoms 

Initialize ...

species:
  C:
    name: Carbon
    id: 4aa54d4b901d75f77cc0ea3eec22967b
    Z: 6.0
    valence: 4
    core: 2
    charge: 0.0
    file: /users/ajayaraj/software/gpaw/gpaw-setups-0.9.20000/C.PBE.gz
    compensation charges: {type: gauss,
                           rc: 0.20,
                           lmax: 2}
    cutoffs: {filter: 1.14,
              core: 1.14}
    valence states:
      #              energy  rcut
      - 2s(2.00)   -13.751   0.635
      - 2p(2.00)    -5.284   0.635
      -  s          13.461   0.635
      -  p          21.927   0.635
      -  d           0.000   0.635
  
    # LCAO basis set for C:
    #   Name: dzp
    #   File: /users/ajayaraj/software/gpaw/gpaw-setups-0.9.20000/C.dzp.basis.gz
    #   Number of radial functions: 5
    #   Number of spherical harmonics: 13
    #     l=0, rc=5.5469 Bohr: 2s-sz confined orbital
    #     l=1, rc=6.6719 Bohr: 2p-sz confined orbital
    #     l=0, rc=3.0312 Bohr: 2s-dz split-valence wave
    #     l=1, rc=3.7500 Bohr: 2p-dz split-valence wave
    #     l=2, rc=6.6719 Bohr: d-type Gaussian polarization
    #   Number of RI-basis functions 0

  H:
    name: Hydrogen
    id: d65de229564ff8ea4db303e23b6d1ecf
    Z: 1.0
    valence: 1
    core: 0
    charge: 0.0
    file: /users/ajayaraj/software/gpaw/gpaw-setups-0.9.20000/H.PBE.gz
    compensation charges: {type: gauss,
                           rc: 0.15,
                           lmax: 2}
    cutoffs: {filter: 0.85,
              core: 0.53}
    valence states:
      #              energy  rcut
      - 1s(1.00)    -6.494   0.476
      -  s          20.717   0.476
      -  p           0.000   0.476
  
    # LCAO basis set for H:
    #   Name: dzp
    #   File: /users/ajayaraj/software/gpaw/gpaw-setups-0.9.20000/H.dzp.basis.gz
    #   Number of radial functions: 3
    #   Number of spherical harmonics: 5
    #     l=0, rc=6.4219 Bohr: 1s-sz confined orbital
    #     l=0, rc=3.6094 Bohr: 1s-dz split-valence wave
    #     l=1, rc=6.4219 Bohr: p-type Gaussian polarization
    #   Number of RI-basis functions 0

Reference energy: -26918.173598  # eV

Spin-paired calculation

Convergence criteria:
 Maximum [total energy] change in last 3 cyles: 0.0005 eV / electron
 Maximum integral of absolute [dens]ity change: 0.0001 electrons / valence electron
 Maximum integral of absolute [eigenst]ate change: 4e-08 eV^2 / valence electron
 Maximum number of scf [iter]ations: 333
 (Square brackets indicate name in SCF output, whereas a 'c' in
 the SCF output indicates the quantity has converged.)

Symmetries present (total): 1

  ( 1  0  0)
  ( 0  1  0)
  ( 0  0  1)

1 k-point (Gamma)
1 k-point in the irreducible part of the Brillouin zone
       k-points in crystal coordinates                weights
   0:     0.00000000    0.00000000    0.00000000          1/1

Wave functions: LCAO
  Diagonalizer: Serial LAPACK
  Atomic Correction: dense with blas
  Data-type: float
 

Occupation numbers: Fermi-Dirac:
  width: 0.2000  # eV
 

Eigensolver
   LCAO using direct dense diagonalizer 

Densities:
  Coarse grid: 104*140*104 grid
  Fine grid: 208*280*208 grid
  Total Charge: 0.000000 

Density mixing:
  Method: separate
  Backend: pulay
  Linear mixing parameter: 0.1
  old densities: 5
  Damping of long wavelength oscillations: 100 

Hamiltonian:
  XC and Coulomb potentials evaluated on a 208*280*208 grid
  Using the PBE Exchange-Correlation functional
  Interpolation: tri-quintic (5. degree polynomial)
  Poisson solver: FastPoissonSolver using
    Stencil: 6*3+1=19 point O(h^6) finite-difference Laplacian
    FFT axes: []
    FST axes: [0, 2, 1]
 

XC parameters: PBE with 2 nearest neighbor stencil

Memory estimate:
  Process memory now: 1179.59 MiB
  Calculator: 679.37 MiB
    Density: 428.21 MiB
      Arrays: 296.13 MiB
      Localized functions: 19.58 MiB
      Mixer: 112.51 MiB
    Hamiltonian: 195.22 MiB
      Arrays: 193.67 MiB
      XC: 0.00 MiB
      Poisson: 0.00 MiB
      vbar: 1.55 MiB
    Wavefunctions: 55.94 MiB
      C [qnM]: 0.24 MiB
      S, T [2 x qmm]: 2.67 MiB
      P [aqMi]: 0.17 MiB
      BasisFunctions: 52.87 MiB
      Eigensolver: 0.00 MiB

Total number of cores used: 1

Number of atoms: 42
Number of atomic orbitals: 418
Number of bands in calculation: 76
Number of valence electrons: 120
Bands to converge: occupied
.... initialized

Initializing position-dependent things.

Density initialized from atomic densities
                  .--------------------------------------------------.  
                 /|                                                  |  
                / |                                                  |  
               /  |                                                  |  
              /   |                                                  |  
             /    |                                                  |  
            /     |                                                  |  
           /      |                                                  |  
          /       |                                                  |  
         /        |                                                  |  
        /         |                                                  |  
       /          |                                                  |  
      /           |                                                  |  
     /            |                                                  |  
    /             |                                                  |  
   /              |                                                  |  
  /               |                                                  |  
 *                |                 H     H                          |  
 |                |           H C  C  C   C C  H                     |  
 |                |            C     C     C                         |  
 |                |         H     C     C    H                       |  
 |                |       H   H  C C   C H                           |  
 |                |         C  C   C                                 |  
 |                |     H  C         C H                             |  
 |                |          C   C  C                                |  
 |                |         H   C     C                              |  
 |                .--------------HC--C--H----------------------------.  
 |               /                     H                            /   
 |              /                                                  /    
 |             /                                                  /     
 |            /                                                  /      
 |           /                                                  /       
 |          /                                                  /        
 |         /                                                  /         
 |        /                                                  /          
 |       /                                                  /           
 |      /                                                  /            
 |     /                                                  /             
 |    /                                                  /              
 |   /                                                  /               
 |  /                                                  /                
 | /                                                  /                 
 |/                                                  /                  
 *--------------------------------------------------*                   

Positions:
   0 C     11.505179    8.100000    9.813190    ( 0.0000,  0.0000,  0.0000)
   1 C     10.431405    8.815826   10.433133    ( 0.0000,  0.0000,  0.0000)
   2 C     10.431786   10.248307   10.432914    ( 0.0000,  0.0000,  0.0000)
   3 C     11.505365   10.963815    9.813082    ( 0.0000,  0.0000,  0.0000)
   4 C     12.579138   10.247989    9.193139    ( 0.0000,  0.0000,  0.0000)
   5 C     12.579332    8.816655    9.193027    ( 0.0000,  0.0000,  0.0000)
   6 C      9.358012   10.964133   11.052857    ( 0.0000,  0.0000,  0.0000)
   7 C      9.357818   12.395466   11.052969    ( 0.0000,  0.0000,  0.0000)
   8 C     10.431398   13.110974   10.433137    ( 0.0000,  0.0000,  0.0000)
   9 C     11.505171   12.395148    9.813194    ( 0.0000,  0.0000,  0.0000)
  10 C      9.357826    8.100318   11.052965    ( 0.0000,  0.0000,  0.0000)
  11 C      8.284052    8.816144   11.672908    ( 0.0000,  0.0000,  0.0000)
  12 C      8.283859   10.247477   11.673020    ( 0.0000,  0.0000,  0.0000)
  13 C     10.431174   14.542307   10.433137    ( 0.0000,  0.0000,  0.0000)
  14 C      9.191287   15.258133   10.433137    ( 0.0000,  0.0000,  0.0000)
  15 C      9.191064   16.689466   10.433137    ( 0.0000,  0.0000,  0.0000)
  16 C     10.431389   17.406122   10.433137    ( 0.0000,  0.0000,  0.0000)
  17 C     11.671276   16.690296   10.433137    ( 0.0000,  0.0000,  0.0000)
  18 C     11.670837   15.257815   10.433137    ( 0.0000,  0.0000,  0.0000)
  19 C     10.431166   18.837455   10.433137    ( 0.0000,  0.0000,  0.0000)
  20 C     11.670829   19.552963   10.433137    ( 0.0000,  0.0000,  0.0000)
  21 C     12.910715   18.837137   10.433137    ( 0.0000,  0.0000,  0.0000)
  22 C     12.910939   17.405803   10.433137    ( 0.0000,  0.0000,  0.0000)
  23 C      7.952325   17.404629   10.433137    ( 0.0000,  0.0000,  0.0000)
  24 C      7.952764   18.837111   10.433137    ( 0.0000,  0.0000,  0.0000)
  25 C      9.192427   19.552618   10.433137    ( 0.0000,  0.0000,  0.0000)
  26 H     11.504887    7.000000    9.813358    ( 0.0000,  0.0000,  0.0000)
  27 H     13.404200   10.797866    8.716790    ( 0.0000,  0.0000,  0.0000)
  28 H     13.404780    8.267551    8.716455    ( 0.0000,  0.0000,  0.0000)
  29 H      8.532812   12.945453   11.529287    ( 0.0000,  0.0000,  0.0000)
  30 H     12.330232   12.945026    9.336845    ( 0.0000,  0.0000,  0.0000)
  31 H      9.357975    7.000318   11.052879    ( 0.0000,  0.0000,  0.0000)
  32 H      7.458991    8.266266   12.149257    ( 0.0000,  0.0000,  0.0000)
  33 H      7.458411   10.796582   12.149592    ( 0.0000,  0.0000,  0.0000)
  34 H      8.238589   14.708255   10.433137    ( 0.0000,  0.0000,  0.0000)
  35 H     12.622963   14.706946   10.433137    ( 0.0000,  0.0000,  0.0000)
  36 H     11.670657   20.652963   10.433137    ( 0.0000,  0.0000,  0.0000)
  37 H     13.863414   19.387014   10.433137    ( 0.0000,  0.0000,  0.0000)
  38 H     13.863575   16.855817   10.433137    ( 0.0000,  0.0000,  0.0000)
  39 H      7.000323   16.853547   10.433137    ( 0.0000,  0.0000,  0.0000)
  40 H      7.000638   19.387979   10.433137    ( 0.0000,  0.0000,  0.0000)
  41 H      9.193138   20.652618   10.433137    ( 0.0000,  0.0000,  0.0000)

Unit cell:
           periodic     x           y           z      points  spacing
  1. axis:    no    20.863252    0.000000    0.000000   104     0.2006
  2. axis:    no     0.000000   27.652963    0.000000   140     0.1975
  3. axis:    no     0.000000    0.000000   20.866275   104     0.2006

  Lengths:  20.863252  27.652963  20.866275
  Angles:   90.000000  90.000000  90.000000

Effective grid spacing dv^(1/3) = 0.1996

     iter     time        total  log10-change:
                         energy  eigst   dens
iter:   1 13:20:14  -290.393916       ciiter:   2 13:20:23  -288.132901       c -0.84iiter:   3 13:20:32  -283.630763       c -0.89iiter:   4 13:20:40  -283.160160       c -1.40iiter:   5 13:20:49  -283.165732       c -1.84iiter:   6 13:20:58  -283.143496c      c -2.12iiter:   7 13:21:07  -283.134859c      c -2.39iiter:   8 13:21:15  -283.133719c      c -2.82iiter:   9 13:21:24  -283.133570c      c -3.17iiter:  10 13:21:33  -283.133534c      c -3.41iiter:  11 13:21:41  -283.133512c      c -3.63iiter:  12 13:21:50  -283.133509c      c -4.05c

Converged after 12 iterations.

Dipole moment: (0.000150, 0.000612, 0.000032) |e|*Ang

Energy contributions relative to reference atoms: (reference = -26918.173598)

Kinetic:       +178.982440
Potential:     -209.530827
External:        +0.000000
XC:            -255.200782
Entropy (-ST):   -0.550617
Local:           +2.890968
--------------------------
Free energy:   -283.408817
Extrapolated:  -283.133509

 Band  Eigenvalues  Occupancy
    0    -21.97838    2.00000
    1    -21.81918    2.00000
    2    -20.86806    2.00000
    3    -20.26340    2.00000
    4    -20.24635    2.00000
    5    -20.06409    2.00000
    6    -19.03779    2.00000
    7    -18.47501    2.00000
    8    -18.32189    2.00000
    9    -18.29378    2.00000
   10    -18.26955    2.00000
   11    -17.69328    2.00000
   12    -16.51821    2.00000
   13    -16.14575    2.00000
   14    -15.74775    2.00000
   15    -15.21389    2.00000
   16    -15.16510    2.00000
   17    -15.14383    2.00000
   18    -14.76627    2.00000
   19    -14.26128    2.00000
   20    -12.96406    2.00000
   21    -12.63583    2.00000
   22    -12.61990    2.00000
   23    -12.58202    2.00000
   24    -12.39562    2.00000
   25    -12.37556    2.00000
   26    -11.95592    2.00000
   27    -11.72465    2.00000
   28    -11.49634    2.00000
   29    -10.77718    2.00000
   30    -10.54229    2.00000
   31    -10.39056    2.00000
   32    -10.24878    2.00000
   33    -10.20266    2.00000
   34    -10.04887    2.00000
   35    -10.01970    2.00000
   36     -9.96153    2.00000
   37     -9.76215    2.00000
   38     -9.71788    2.00000
   39     -9.56162    2.00000
   40     -9.48780    2.00000
   41     -9.20106    2.00000
   42     -9.19584    2.00000
   43     -9.00834    2.00000
   44     -8.75942    2.00000
   45     -8.41908    2.00000
   46     -8.09293    2.00000
   47     -8.05689    2.00000
   48     -8.04937    2.00000
   49     -7.95414    2.00000
   50     -7.82414    2.00000
   51     -7.77431    2.00000
   52     -7.75193    2.00000
   53     -6.69947    2.00000
   54     -6.19567    1.99999
   55     -6.15293    1.99999
   56     -6.12202    1.99999
   57     -6.11575    1.99999
   58     -5.46929    1.99972
   59     -3.73894    1.11356
   60     -3.64771    0.88646
   61     -1.90801    0.00027
   62     -1.27131    0.00001
   63     -1.23540    0.00001
   64     -1.21739    0.00001
   65     -1.07885    0.00000
   66     -0.44347    0.00000
   67      1.01952    0.00000
   68      1.31931    0.00000
   69      1.37221    0.00000
   70      1.54597    0.00000
   71      1.71536    0.00000
   72      1.90351    0.00000
   73      2.15960    0.00000
   74      2.21350    0.00000
   75      2.22051    0.00000

Fermi level: -3.69332

Gap: 0.091 eV
Transition (v -> c):
  (s=0, k=0, n=59, [0.00, 0.00, 0.00]) -> (s=0, k=0, n=60, [0.00, 0.00, 0.00])WWriting to struct.gpw (mode='all')

Timing:                              incl.     excl.
-----------------------------------------------------------
Basic WFS set positions:             0.001     0.001   0.0% |
Basis functions set positions:       0.124     0.124   0.1% |
LCAO WFS Initialize:                 7.457     0.323   0.2% |
 Hamiltonian:                        7.133     0.000   0.0% |
  Atomic:                            0.948     0.003   0.0% |
   XC Correction:                    0.945     0.945   0.7% |
  Calculate atomic Hamiltonians:     0.006     0.006   0.0% |
  Communicate:                       0.000     0.000   0.0% |
  Hartree integrate/restrict:        0.176     0.176   0.1% |
  Initialize Hamiltonian:            0.000     0.000   0.0% |
  Poisson:                           2.132     0.141   0.1% |
   Communicate from 1D:              0.208     0.208   0.1% |
   Communicate from 2D:              0.217     0.217   0.2% |
   Communicate to 1D:                0.212     0.212   0.2% |
   Communicate to 2D:                0.209     0.209   0.1% |
   FFT 1D:                           0.399     0.399   0.3% |
   FFT 2D:                           0.746     0.746   0.5% |
  XC 3D grid:                        3.795     3.795   2.7% ||
  vbar:                              0.076     0.076   0.1% |
P tci:                               0.227     0.227   0.2% |
SCF-cycle:                          96.713     0.627   0.4% |
 Density:                           10.181     0.000   0.0% |
  Atomic density matrices:           0.034     0.034   0.0% |
  Mix:                               3.692     3.692   2.6% ||
  Multipole moments:                 0.008     0.008   0.0% |
  Normalize:                         0.029     0.029   0.0% |
  Pseudo density:                    6.418     0.033   0.0% |
   Calculate density matrix:         0.095     0.095   0.1% |
   Construct density:                6.290     6.290   4.5% |-|
   Symmetrize density:               0.000     0.000   0.0% |
 Hamiltonian:                       77.443     0.001   0.0% |
  Atomic:                           10.312     0.033   0.0% |
   XC Correction:                   10.279    10.279   7.3% |--|
  Calculate atomic Hamiltonians:     0.063     0.063   0.0% |
  Communicate:                       0.000     0.000   0.0% |
  Hartree integrate/restrict:        1.873     1.873   1.3% ||
  Poisson:                          23.256     1.171   0.8% |
   Communicate from 1D:              2.314     2.314   1.6% ||
   Communicate from 2D:              2.438     2.438   1.7% ||
   Communicate to 1D:                2.291     2.291   1.6% ||
   Communicate to 2D:                2.298     2.298   1.6% ||
   FFT 1D:                           4.464     4.464   3.2% ||
   FFT 2D:                           8.281     8.281   5.9% |-|
  XC 3D grid:                       41.604    41.604  29.5% |-----------|
  vbar:                              0.332     0.332   0.2% |
 LCAO eigensolver:                   8.462     0.004   0.0% |
  Calculate projections:             0.114     0.114   0.1% |
  DenseAtomicCorrection:             0.171     0.171   0.1% |
  Distribute overlap matrix:         0.000     0.000   0.0% |
  Orbital Layouts:                   0.415     0.415   0.3% |
  Potential matrix:                  7.759     7.759   5.5% |-|
ST tci:                              0.087     0.087   0.1% |
Set symmetry:                        0.001     0.001   0.0% |
TCI: Evaluate splines:               0.169     0.169   0.1% |
mktci:                               0.009     0.009   0.0% |
Other:                              36.120    36.120  25.6% |---------|
-----------------------------------------------------------
Total:                                       140.907 100.0%

Memory usage: 1.69 GiB
Date: Sun Oct  6 13:22:07 2024

