
  ___ ___ ___ _ _ _  
 |   |   |_  | | | | 
 | | | | | . | | | | 
 |__ |  _|___|_____|  22.8.0
 |___|_|             

User:   anooja@anooja-ThinkPad-X1-Carbon-Gen-11
Date:   Mon Dec  9 15:34:03 2024
Arch:   x86_64
Pid:    44620
CWD:    /home/anooja/Desktop/los-dmrg/tests/benzene
Python: 3.9.20
gpaw:   /home/anooja/miniconda3/envs/gpaw/lib/python3.9/site-packages/gpaw
_gpaw:  /home/anooja/miniconda3/envs/gpaw/lib/python3.9/site-packages/
        _gpaw.cpython-39-x86_64-linux-gnu.so
ase:    /home/anooja/miniconda3/envs/gpaw/lib/python3.9/site-packages/ase (version 3.22.1)
numpy:  /home/anooja/miniconda3/envs/gpaw/lib/python3.9/site-packages/numpy (version 1.22.4)
scipy:  /home/anooja/miniconda3/envs/gpaw/lib/python3.9/site-packages/scipy (version 1.8.1)
libxc:  6.2.2
units:  Angstrom and eV
cores: 1
OpenMP: True
OMP_NUM_THREADS: 1

Input parameters:
  basis: {C: szp(dzp),
          H: szp(dzp)}
  h: 0.2
  kpts: [1 1 1]
  mixer: {backend: pulay,
          beta: 0.1,
          method: separate,
          nmaxold: 5,
          weight: 100.0}
  mode: lcao
  occupations: {fixmagmom: False,
                name: fermi-dirac,
                width: 0.2}
  symmetry: {point_group: False,
             time_reversal: True}
  xc: PBE

System changes: positions, numbers, cell, pbc, initial_charges, initial_magmoms 

Initialize ...

species:
  C:
    name: Carbon
    id: 4aa54d4b901d75f77cc0ea3eec22967b
    Z: 6.0
    valence: 4
    core: 2
    charge: 0.0
    file: /home/anooja/miniconda3/envs/gpaw/share/gpaw/C.PBE.gz
    compensation charges: {type: gauss,
                           rc: 0.20,
                           lmax: 2}
    cutoffs: {filter: 1.14,
              core: 1.14}
    valence states:
      #              energy  rcut
      - 2s(2.00)   -13.751   0.635
      - 2p(2.00)    -5.284   0.635
      -  s          13.461   0.635
      -  p          21.927   0.635
      -  d           0.000   0.635
  
    # LCAO basis set for C:
    #   Name: szp(dzp)
    #   File: /home/anooja/miniconda3/envs/gpaw/share/gpaw/C.dzp.basis.gz
    #   Number of radial functions: 3
    #   Number of spherical harmonics: 9
    #     l=0, rc=5.5469 Bohr: 2s-sz confined orbital
    #     l=1, rc=6.6719 Bohr: 2p-sz confined orbital
    #     l=2, rc=6.6719 Bohr: d-type Gaussian polarization
    #   Number of RI-basis functions 0

  H:
    name: Hydrogen
    id: d65de229564ff8ea4db303e23b6d1ecf
    Z: 1.0
    valence: 1
    core: 0
    charge: 0.0
    file: /home/anooja/miniconda3/envs/gpaw/share/gpaw/H.PBE.gz
    compensation charges: {type: gauss,
                           rc: 0.15,
                           lmax: 2}
    cutoffs: {filter: 0.85,
              core: 0.53}
    valence states:
      #              energy  rcut
      - 1s(1.00)    -6.494   0.476
      -  s          20.717   0.476
      -  p           0.000   0.476
  
    # LCAO basis set for H:
    #   Name: szp(dzp)
    #   File: /home/anooja/miniconda3/envs/gpaw/share/gpaw/H.dzp.basis.gz
    #   Number of radial functions: 2
    #   Number of spherical harmonics: 4
    #     l=0, rc=6.4219 Bohr: 1s-sz confined orbital
    #     l=1, rc=6.4219 Bohr: p-type Gaussian polarization
    #   Number of RI-basis functions 0

Reference energy: -6240.709666  # eV

Spin-paired calculation

Convergence criteria:
 Maximum [total energy] change in last 3 cyles: 0.0005 eV / electron
 Maximum integral of absolute [dens]ity change: 0.0001 electrons / valence electron
 Maximum integral of absolute [eigenst]ate change: 4e-08 eV^2 / valence electron
 Maximum number of scf [iter]ations: 333
 (Square brackets indicate name in SCF output, whereas a 'c' in
 the SCF output indicates the quantity has converged.)

Symmetries present (total): 1

  ( 1  0  0)
  ( 0  1  0)
  ( 0  0  1)

1 k-point (Gamma)
1 k-point in the irreducible part of the Brillouin zone
       k-points in crystal coordinates                weights
   0:     0.00000000    0.00000000    0.00000000          1/1

Wave functions: LCAO
  Diagonalizer: Serial LAPACK
  Atomic Correction: dense with blas
  Data-type: float
 

Occupation numbers: Fermi-Dirac:
  width: 0.2000  # eV
 

Eigensolver
   LCAO using direct dense diagonalizer 

Densities:
  Coarse grid: 76*72*48 grid
  Fine grid: 152*144*96 grid
  Total Charge: 0.000000 

Density mixing:
  Method: separate
  Backend: pulay
  Linear mixing parameter: 0.1
  old densities: 5
  Damping of long wavelength oscillations: 100 

Hamiltonian:
  XC and Coulomb potentials evaluated on a 152*144*96 grid
  Using the PBE Exchange-Correlation functional
  Interpolation: tri-quintic (5. degree polynomial)
  Poisson solver: FastPoissonSolver using
    Stencil: 6*3+1=19 point O(h^6) finite-difference Laplacian
    FFT axes: []
    FST axes: [2, 1, 0]
 

XC parameters: PBE with 2 nearest neighbor stencil

Memory estimate:
  Process memory now: 517.00 MiB
  Calculator: 121.02 MiB
    Density: 74.81 MiB
      Arrays: 50.77 MiB
      Localized functions: 4.94 MiB
      Mixer: 19.09 MiB
    Hamiltonian: 33.60 MiB
      Arrays: 33.21 MiB
      XC: 0.00 MiB
      Poisson: 0.00 MiB
      vbar: 0.39 MiB
    Wavefunctions: 12.61 MiB
      C [qnM]: 0.01 MiB
      S, T [2 x qmm]: 0.09 MiB
      P [aqMi]: 0.01 MiB
      BasisFunctions: 12.49 MiB
      Eigensolver: 0.00 MiB

Total number of cores used: 1

Number of atoms: 12
Number of atomic orbitals: 78
Number of bands in calculation: 22
Number of valence electrons: 30
Bands to converge: occupied

... initialized

Initializing position-dependent things.

Density initialized from atomic densities
          .------------------------------------.  
         /|                                    |  
        / |                                    |  
       /  |                                    |  
      /   |                                    |  
     /    |                                    |  
    /     |                                    |  
   /      |                                    |  
  /       |                                    |  
 *        |          H     H                   |  
 |        |           C  C                     |  
 |        |      H CC   C C  H                 |  
 |        .-------H-----H----------------------.  
 |       /                                    /   
 |      /                                    /    
 |     /                                    /     
 |    /                                    /      
 |   /                                    /       
 |  /                                    /        
 | /                                    /         
 |/                                    /          
 *------------------------------------*           

Positions:
   0 C      8.393634    7.000008    5.000000    ( 0.0000,  0.0000,  0.0000)
   1 C      7.696817    8.206947    5.000000    ( 0.0000,  0.0000,  0.0000)
   2 C      6.303169    8.206955    5.000000    ( 0.0000,  0.0000,  0.0000)
   3 C      5.606348    7.000005    5.000000    ( 0.0000,  0.0000,  0.0000)
   4 C      6.303173    5.793067    5.000000    ( 0.0000,  0.0000,  0.0000)
   5 C      7.696823    5.793056    5.000000    ( 0.0000,  0.0000,  0.0000)
   6 H      9.487692    7.000014    5.000000    ( 0.0000,  0.0000,  0.0000)
   7 H      8.243855    9.154432    5.000000    ( 0.0000,  0.0000,  0.0000)
   8 H      5.756121    9.154434    5.000000    ( 0.0000,  0.0000,  0.0000)
   9 H      4.512292    7.000002    5.000000    ( 0.0000,  0.0000,  0.0000)
  10 H      5.756113    4.845599    5.000000    ( 0.0000,  0.0000,  0.0000)
  11 H      8.243861    4.845581    5.000000    ( 0.0000,  0.0000,  0.0000)

Unit cell:
           periodic     x           y           z      points  spacing
  1. axis:    no    15.015800    0.000000    0.000000    76     0.1976
  2. axis:    no     0.000000   14.344000    0.000000    72     0.1992
  3. axis:    no     0.000000    0.000000   10.000000    48     0.2083

  Lengths:  15.015800  14.344000  10.000000
  Angles:   90.000000  90.000000  90.000000

Effective grid spacing dv^(1/3) = 0.2017

     iter     time        total  log10-change:
                         energy  eigst   dens
iter:   1 15:34:05   -65.322826       c
iter:   2 15:34:05   -65.308689       c -0.93
iter:   3 15:34:06   -65.507547       c -0.98
iter:   4 15:34:07   -65.427629       c -1.66
iter:   5 15:34:08   -65.427602       c -2.46
iter:   6 15:34:08   -65.426558c      c -2.51
iter:   7 15:34:09   -65.426556c      c -3.71
iter:   8 15:34:11   -65.426554c      c -3.90
iter:   9 15:34:12   -65.426554c      c -4.72c

Converged after 9 iterations.

Dipole moment: (-0.000599, -0.000163, 0.000000) |e|*Ang

Energy contributions relative to reference atoms: (reference = -6240.709666)

Kinetic:        -17.198078
Potential:       +3.028704
External:        +0.000000
XC:             -51.906889
Entropy (-ST):   -0.000054
Local:           +0.649737
--------------------------
Free energy:    -65.426581
Extrapolated:   -65.426554

 Band  Eigenvalues  Occupancy
    0    -23.19591    2.00000
    1    -20.44245    2.00000
    2    -20.44209    2.00000
    3    -16.59778    2.00000
    4    -16.59738    2.00000
    5    -14.20300    2.00000
    6    -12.90994    2.00000
    7    -12.89512    2.00000
    8    -11.99146    2.00000
    9    -11.99125    2.00000
   10    -10.50407    2.00000
   11    -10.27855    2.00000
   12    -10.27642    2.00000
   13     -7.97655    2.00000
   14     -7.97651    2.00000
   15     -2.80628    0.00000
   16     -2.80597    0.00000
   17      1.16914    0.00000
   18      1.48633    0.00000
   19      3.41657    0.00000
   20      3.41830    0.00000
   21      4.52233    0.00000

Fermi level: -5.39133

Gap: 5.170 eV
Transition (v -> c):
  (s=0, k=0, n=14, [0.00, 0.00, 0.00]) -> (s=0, k=0, n=15, [0.00, 0.00, 0.00])
